81
Lattice="13.336197268014928 0.0 0.0 0.0 13.336197268014928 0.0 0.0 0.0 13.336197268014928" Properties=species:S:1:pos:R:3:masses:R:1:momenta:R:3:forces:R:3 energy=3.7601493632643694 pbc="T T T"
C        2.43932531       3.22931195       1.34129191      15.03500000       0.93334670       2.09655093       2.14097371       0.12475497      -0.62269410      -0.12934617
C        2.29165175       2.15949701       2.32080838      12.01100000       0.18147401      -0.09897079      -0.31205941       0.00852750       0.16136421      -0.01730103
N        2.17446497       1.31054235       3.09810642      14.00700000      -0.31044581      -1.75697678      -2.23551601      -0.05473280       0.52840441       0.24027051
C        2.18677718       3.05295914       5.99073967      15.03500000      -0.06352891       1.64647993       3.26064309       0.02677035      -0.51936278      -0.13014682
C        2.23567630       1.94270219       6.93450998      12.01100000       0.09210460      -0.64798002       0.28778559       0.08020565       0.12383799       0.12786640
N        2.27448034       1.06165468       7.68344157      14.00700000       0.23961322      -2.57255340      -1.80864140       0.05392852       0.83780757       0.48370817
C        2.17196676       3.42829190      10.30606138      15.03500000       0.15698351       2.26242506       2.14788243       0.12466163      -2.02887493      -1.12420214
C        2.16018197       2.30892796      11.24021849      12.01100000      -0.17028074       0.05505148      -0.38760197       0.03428059       0.01277467      -0.13020034
N        2.15083013       1.42065356      11.98152149      14.00700000      -0.47221749      -1.55745255      -2.39862895      -0.02264291       0.15734691      -0.06531869
C        2.21937238       7.85427530       1.39205509      15.03500000      -0.10338204       2.20034422       2.37452786       0.04120267      -1.82023001      -1.10172611
C        2.10333201       6.65818054       2.21767969      12.01100000      -0.35356178       0.01072901      -0.67213725      -0.03128835       0.18342671      -0.08681335
N        2.01124784       5.70901619       2.87285641      14.00700000      -0.66308259      -1.60426171      -3.16132275      -0.08213259       0.65130550       0.28307384
C        2.35515422       7.79192676       5.89183099      15.03500000       0.61156284       1.90591752       2.60073405      -0.18522233      -1.85443309      -1.05014047
C        2.26199077       6.61734453       6.75057493      12.01100000      -0.01958101      -0.13751119      -0.24813689      -0.01531642       0.04011900      -0.04145248
N        2.18806065       5.68525150       7.43203361      14.00700000      -0.49308088      -1.69665392      -2.44171354      -0.03915535       0.49126022       0.17716172
C        2.58538936       7.62595029      10.29445496      15.03500000       1.19290428       1.71327954       2.73918289       0.08775453      -0.54604838      -0.17849193
C        2.25585996       6.52414472      11.19066859      12.01100000      -0.02970251      -0.26327703      -0.17940892       0.03466336       0.40550219       0.12177762
N        1.99436098       5.64980382      11.90186144      14.00700000      -0.94403366      -1.81729044      -2.40031609      -0.15252658       1.67168072       1.04039921
C        2.32322190      12.14564446       1.51070220      15.03500000       0.45331937       2.25401655       3.11363497       0.04820594      -0.70180887      -0.26458320
C        2.21841187      10.97540257       2.37401719      12.01100000       0.11983422      -0.07083195      -0.07888344       0.03881996       0.29415603       0.13019466
N        2.13523958      10.04675382       3.05910322      14.00700000      -0.08449043      -1.81453486      -2.46688669      -0.07759131       1.50729875       1.02204255
C        1.92063606      12.09724159       5.99219198      15.03500000      -1.01216106       1.80150952       3.19315848      -0.15474028      -1.06941330      -0.55670777
C        2.34398922      10.95625224       6.79511128      12.01100000       0.39499554      -0.02652033      -0.16651394      -0.00762564       0.25266358       0.08437806
N        2.67994230      10.05081693       7.43227014      14.00700000       1.57446073      -1.38731636      -2.70896656       0.23522310       1.55444122       0.94435295
C        2.14169172      12.07700315      10.26753500      15.03500000      -0.57132373       2.26688736       2.66569929      -0.00865729      -0.22577346       0.01463116
C        2.19870317      10.97384252      11.21913908      12.01100000      -0.19034868      -0.17225655      -0.18545155      -0.02945550       0.12244514       0.00314116
N        2.24394476      10.09842630      11.97428717      14.00700000       0.02424187      -2.03619061      -2.35862888      -0.05635033       0.45703917       0.19855739
C        6.98259532       3.13466433       1.57437676      15.03500000       1.21394930       1.66289642       3.42526961       0.07146408      -0.63755410      -0.20792449
C        6.54360971       2.03360509       2.42333152      12.01100000      -0.42568221      -0.24590649      -0.02709799      -0.06337368       0.10102631       0.05353630
N        6.19525145       1.15985644       3.09702196      14.00700000      -1.78782615      -1.74371012      -2.58896167      -0.08189674       0.41612081       0.17689214
C        7.32414448       3.12779507       5.88163756      15.03500000       2.32338165       1.60014440       3.06045016       0.18244133      -0.78069073      -0.31258939
C        6.83745517       2.06176085       6.74908701      12.01100000       0.43856068      -0.22478208      -0.19759927       0.03005511       0.15554682       0.08195208
N        6.45124149       1.21580639       7.43745396      14.00700000      -0.80036681      -1.65313393      -2.67587432      -0.00778272       0.65479121       0.33131328
C        6.92692897       3.22487383      10.41741968      15.03500000       0.91604457       1.83950582       3.19128453       0.25865093      -1.20050586      -0.53906327
C        6.68981482       2.07861662      11.28669253      12.01100000      -0.04696493      -0.37504968      -0.09533479      -0.00203811       0.06887544       0.02381042
N        6.50165222       1.16900099      11.97650645      14.00700000      -0.77545898      -2.14439333      -2.55870234       0.08064273       0.52427472       0.26625497
C        6.72346484       7.79323991       1.35261269      15.03500000       0.32040725       2.38897838       2.36911299       0.00143369      -1.41417352      -0.77349948
C        6.64955815       6.64334086       2.24594017      12.01100000      -0.01935942       0.08707528      -0.47469657      -0.03217562       0.08937522      -0.05384784
N        6.59090929       5.73083524       2.95484270      14.00700000      -0.27736765      -1.58403151      -2.74435120      -0.04317901       0.57833449       0.20472568
C        6.75834957       7.64995609       5.89479001      15.03500000       0.26601122       1.89242131       3.18085771       0.01280687      -0.61156934      -0.21170863
C        6.65580388       6.45808176       6.72826705      12.01100000      -0.06904160      -0.38667004      -0.20836375      -0.06987249       0.11179813       0.03441103
N        6.57442846       5.51226654       7.38967509      14.00700000      -0.34106857      -2.20781870      -2.78740604      -0.16572779       0.71864868       0.33814558
C        6.89571977       7.65889726      10.33661975      15.03500000       0.83673089       1.71727999       2.71995703       0.23368063      -1.37629943      -0.70696054
C        6.53976964       6.51337706      11.16538206      12.01100000      -0.22336293      -0.21699344      -0.40628854       0.00060480       0.19665529       0.00446268
N        6.25730441       5.60434628      11.82304872      14.00700000      -1.08577814      -1.72344087      -2.86064558      -0.26705930       1.03597187       0.47606646
C        7.08856403      12.14747722       1.42505639      15.03500000       1.50968054       2.22876327       2.86577278       0.13127738      -0.59105948      -0.26112924
C        6.84741975      10.99746332       2.28823740      12.01100000       0.57878403       0.02590121      -0.22349097       0.02320430       0.21545925      -0.01247597
N        6.65605902      10.08486656       2.97321713      14.00700000       0.09449020      -1.59353747      -2.58610566      -0.00853166       1.20450749       0.71126967
C        6.61653985      12.15534049       5.75608703      15.03500000      -0.40104828       2.21598318       2.15345534      -0.02715324      -0.80750315      -0.33579660
C        6.66521729      11.05828421       6.71518141      12.01100000       0.02587165      -0.06369786      -0.39503371      -0.05579805       0.11387305      -0.02443183
N        6.70384541      10.18771212       7.47627345      14.00700000       0.35060616      -1.77149528      -2.41829325       0.06258381       0.48888198       0.18133813
C        6.33637585      12.06483168      10.28175805      15.03500000      -0.94217630       1.82509892       2.55251621      -0.05479833      -0.60175206      -0.23642067
C        6.42268916      10.90530404      11.16142257      12.01100000      -0.66434842      -0.32910840      -0.32523288      -0.06568480       0.17439580       0.05354095
N        6.49118333       9.98515763      11.85948283      14.00700000      -0.69301009      -2.03765127      -2.56732087      -0.16903835       1.18670679       0.69038217
C       11.22753891       3.31461041       1.29657495      15.03500000       0.38671593       2.07211222       1.98073570       0.18211884      -1.46197447      -0.84217323
C       11.19068415       2.22272381       2.26207449      12.01100000       0.11297950      -0.12600830      -0.43967141       0.02650891       0.09820253       0.02375865
N       11.16143796       1.35625412       3.02824937      14.00700000      -0.04958827      -1.79546124      -2.38396709      -0.03770425       0.53566115       0.25533231
C       11.31498017       3.24900995       5.92712477      15.03500000       0.64915114       1.99510211       3.03918269       0.10439745      -0.62473740      -0.25574150
C       11.10170540       2.10097371       6.80021736      12.01100000      -0.02728807      -0.25148764      -0.13185096       0.04834602       0.12716290       0.04082151
N       10.93246060       1.18994633       7.49306243      14.00700000      -0.53698985      -2.00098157      -2.52263175       0.02863459       0.69175985       0.38157318
C       11.36065785       3.21537924      10.39101126      15.03500000       0.88218528       2.00788086       3.06588992       0.06226015      -0.85947794      -0.35859251
C       11.12972808       2.08171296      11.27827458      12.01100000      -0.06997059      -0.09235068       0.08011692       0.03116634       0.20370676       0.03763965
N       10.94647312       1.18208890      11.98236489      14.00700000      -0.79854580      -1.67757680      -2.09902271      -0.01945114       1.03906980       0.61746474
C       11.04276937       7.68847977       1.54028204      15.03500000      -0.14135380       1.72463068       3.16665844      -0.02345393      -1.29423134      -0.62508061
C       11.00188538       6.47485840       2.34726138      12.01100000      -0.35562699      -0.33423191      -0.05721720      -0.04257108       0.19384748       0.11994679
N       10.96944178       5.51178574       2.98764210      14.00700000      -0.63932987      -1.97409202      -2.46076937      -0.12494322       1.33029394       0.88230739
C       11.54581552       7.68504055       5.98552645      15.03500000       1.59737217       1.91523431       3.27495594       0.09521998      -1.07954880      -0.46338871
C       11.15135857       6.58286342       6.85464859      12.01100000       0.02869548      -0.11629388      -0.03765250      -0.04862129       0.05101199      -0.07305607
N       10.83833615       5.70822767       7.54434291      14.00700000      -1.12090893      -1.65916350      -2.49991147      -0.09599995       0.48925068       0.17387961
C       11.33321612       7.63774803      10.20894190      15.03500000       0.86333375       1.97183617       2.34686764       0.08194290      -0.31632144       0.03653421
C       11.20639458       6.54774081      11.16892343      12.01100000       0.22894977      -0.26835001      -0.27932349      -0.01976627       0.11321498       0.07382451
N       11.10575498       5.68276251      11.93071948      14.00700000      -0.15938499      -2.01905065      -2.31926159      -0.06813147       0.71391705       0.33423684
C       11.13532445      12.17814542       1.45542037      15.03500000       0.33418734       2.14287495       2.89081211       0.02078606      -0.68253584      -0.27228261
C       11.10219605      11.01336974       2.33175599      12.01100000       0.18825917      -0.08498277      -0.08187881       0.04558877       0.15180025      -0.03114003
N       11.07590691      10.08905873       3.02717459      14.00700000       0.14670133      -1.76196644      -2.30842009      -0.00730539       1.12617130       0.56174918
C       10.77136740      12.18986653       5.74795225      15.03500000      -1.08679424       2.07450204       2.25994958      -0.07778519      -0.79935563      -0.35620657
C       11.07144707      11.07597085       6.63955340      12.01100000       0.00956881      -0.00595613      -0.56790728      -0.05465763       0.10267645       0.01352229
N       11.30957614      10.19203580       7.34708599      14.00700000       0.82347530      -1.54612603      -2.85860747      -0.01451673       0.96842868       0.42813683
C       10.99844614      12.23239609      10.31364482      15.03500000      -0.56539176       2.11573807       2.82388442      -0.00506322      -1.29524849      -0.72926179
C       10.87614259      11.07591104      11.19304699      12.01100000      -0.62604462      -0.19867103      -0.25235210      -0.04899575       0.05808783      -0.03185029
N       10.77908826      10.15817907      11.89089905      14.00700000      -0.89144836      -1.97969548      -2.61550396      -0.03430036       0.34079700       0.11066772
